Title: * FILE: lab1_2.sp
Date: Fri Sep 25 16:49:10  2015
Plotname: Transient Analysis
Flags: real
No. Variables: 15
No. Points: 0       
Command: version 17
Variables:
